 Gaussian 09, Revision D.01,
 Gaussian 09:  ES64L-G09RevD.01 24-Apr-2013

 -------------------------------------------------
 #P B3LYP 6-31G* gfprint pop(NBO,SaveNBOs) Density
 -------------------------------------------------

 (Enter /home/Andriy.Zhugayevych/local/gaussian/g09/l101.exe)

 Symbolic Z-matrix:
 Charge =  0 Multiplicity = 1

                         Standard orientation:
 ---------------------------------------------------------------------
 Center     Atomic      Atomic             Coordinates (Angstroms)
 Number     Number       Type             X           Y           Z
 ---------------------------------------------------------------------
      1         24           0        0.000000    0.000000    0.000000
      2          6           0        0.000000    0.000000    1.915427
      3          6           0        0.000000    1.915427    0.000000
      4          6           0        0.000000    0.000000   -1.915427
      5          6           0        0.000000   -1.915427    0.000000
      6          6           0        1.915427    0.000000    0.000000
      7          6           0       -1.915427    0.000000    0.000000
      8          8           0        0.000000    0.000000    3.065051
      9          8           0        0.000000    3.065051    0.000000
     10          8           0        0.000000    0.000000   -3.065051
     11          8           0        0.000000   -3.065051    0.000000
     12          8           0        3.065051    0.000000    0.000000
     13          8           0       -3.065051    0.000000    0.000000
 ---------------------------------------------------------------------

 SCF Done:  E(RB3LYP) =  -1724.48274237     A.U. after   15 cycles

 The electronic state is 1-A1G.
 Alpha  occ. eigenvalues -- -215.78077 -24.78438 -21.07557 -21.07557 -21.07557
 Alpha  occ. eigenvalues --  -19.25266 -19.25266 -19.25266 -19.25266 -19.25266
 Alpha  occ. eigenvalues --  -19.25266 -10.32538 -10.32537 -10.32537 -10.32537
 Alpha  occ. eigenvalues --  -10.32536 -10.32536  -2.91039  -1.85668  -1.85668
 Alpha  occ. eigenvalues --   -1.85668  -1.15431  -1.15328  -1.15328  -1.15328
 Alpha  occ. eigenvalues --   -1.15290  -1.15290  -0.62413  -0.57802  -0.57802
 Alpha  occ. eigenvalues --   -0.57802  -0.57449  -0.57449  -0.51081  -0.48614
 Alpha  occ. eigenvalues --   -0.48614  -0.48614  -0.48368  -0.48368  -0.48368
 Alpha  occ. eigenvalues --   -0.46708  -0.46708  -0.46708  -0.46032  -0.46032
 Alpha  occ. eigenvalues --   -0.46032  -0.45481  -0.45481  -0.42120  -0.42120
 Alpha  occ. eigenvalues --   -0.42120  -0.25430  -0.25430  -0.25430
 Alpha virt. eigenvalues --   -0.05704  -0.05704  -0.05704  -0.03637  -0.03637
 Alpha virt. eigenvalues --   -0.03637  -0.01373  -0.01373  -0.01373   0.01621
 Alpha virt. eigenvalues --    0.01621   0.01621   0.01873   0.01873   0.01940

 Mulliken charges:
               1
     1  Cr   0.055706
     2  C    0.300528
     3  C    0.300528
     4  C    0.300528
     5  C    0.300528
     6  C    0.300528
     7  C    0.300528
     8  O   -0.309812
     9  O   -0.309812
    10  O   -0.309812
    11  O   -0.309812
    12  O   -0.309812
    13  O   -0.309812
 Sum of Mulliken charges =   0.00000

 Dipole moment (field-independent basis, Debye):
    X=              0.0000    Y=              0.0000    Z=              0.0000  Tot=              0.0000
 Quadrupole moment (field-independent basis, Debye-Ang):
   XX=            -83.0964   YY=            -83.0964   ZZ=            -83.0964
   XY=              0.0000   XZ=              0.0000   YZ=              0.0000

 Summary of Natural Population Analysis:

                                       Natural Population
                Natural  -----------------------------------------------
    Atom  No    Charge         Core      Valence    Rydberg      Total
 -----------------------------------------------------------------------
     Cr    1   -0.98881     17.96376     7.00904    0.01601    24.98881
      C    2    0.59333      1.99869     3.34309    0.06489     5.40667
      C    3    0.59333      1.99869     3.34309    0.06489     5.40667
      C    4    0.59333      1.99869     3.34309    0.06489     5.40667
      C    5    0.59333      1.99869     3.34309    0.06489     5.40667
      C    6    0.59333      1.99869     3.34309    0.06489     5.40667
      C    7    0.59333      1.99869     3.34309    0.06489     5.40667
      O    8   -0.42853      1.99975     6.40174    0.02704     8.42853
      O    9   -0.42853      1.99975     6.40174    0.02704     8.42853
      O   10   -0.42853      1.99975     6.40174    0.02704     8.42853
      O   11   -0.42853      1.99975     6.40174    0.02704     8.42853
      O   12   -0.42853      1.99975     6.40174    0.02704     8.42853
      O   13   -0.42853      1.99975     6.40174    0.02704     8.42853
 =======================================================================
   * Total *    0.00000     41.95438    65.47802    0.56760   108.00000

 Normal termination of Gaussian 09 at Wed Oct  5 17:52:21 2016.
