 Gaussian 16, Revision A.03,
 Gaussian 16:  ES64L-G16RevA.03 25-Dec-2016

 ----------------------------------------------------------------------
 #P PBE1PBE Def2TZVP int(ultrafine) gfprint nosymm pop(NBO,SaveNBOs) De
 nsity
 ----------------------------------------------------------------------

 (Enter /opt/cms/q-ch/gaussian/A03/g16/l101.exe)

 Symbolic Z-matrix:
 Charge =  0 Multiplicity = 1

                          Input orientation:
 ---------------------------------------------------------------------
 Center     Atomic      Atomic             Coordinates (Angstroms)
 Number     Number       Type             X           Y           Z
 ---------------------------------------------------------------------
      1         24           0        0.000000    0.000000    0.000000
      2          6           0        1.897809    0.000000    0.000000
      3          6           0        0.000000   -1.897809    0.000000
      4          6           0       -1.897809    0.000000    0.000000
      5          6           0        0.000000    1.897809    0.000000
      6          6           0        0.000000    0.000000    1.897809
      7          6           0        0.000000    0.000000   -1.897809
      8          8           0        3.034617    0.000000    0.000000
      9          8           0        0.000000   -3.034617    0.000000
     10          8           0       -3.034617    0.000000    0.000000
     11          8           0        0.000000    3.034617    0.000000
     12          8           0        0.000000    0.000000    3.034617
     13          8           0        0.000000    0.000000   -3.034617
 ---------------------------------------------------------------------

 SCF Done:  E(RPBE1PBE) =  -1723.88096711     A.U. after   12 cycles

 Alpha  occ. eigenvalues -- -216.03420 -24.86412 -21.11963 -21.11963 -21.11963
 Alpha  occ. eigenvalues --  -19.30381 -19.30381 -19.30381 -19.30380 -19.30380
 Alpha  occ. eigenvalues --  -19.30380 -10.36002 -10.36002 -10.36002 -10.36000
 Alpha  occ. eigenvalues --  -10.36000 -10.36000  -2.94785  -1.88083  -1.88083
 Alpha  occ. eigenvalues --   -1.88083  -1.19061  -1.18948  -1.18948  -1.18948
 Alpha  occ. eigenvalues --   -1.18905  -1.18905  -0.64742  -0.60092  -0.60092
 Alpha  occ. eigenvalues --   -0.60092  -0.59723  -0.59723  -0.53411  -0.51157
 Alpha  occ. eigenvalues --   -0.51157  -0.51157  -0.50740  -0.50740  -0.50740
 Alpha  occ. eigenvalues --   -0.49140  -0.49140  -0.49140  -0.48421  -0.48421
 Alpha  occ. eigenvalues --   -0.48421  -0.47233  -0.47233  -0.43734  -0.43734
 Alpha  occ. eigenvalues --   -0.43734  -0.27122  -0.27122  -0.27122
 Alpha virt. eigenvalues --   -0.04943  -0.04943  -0.04943  -0.02949  -0.02949
 Alpha virt. eigenvalues --   -0.02949  -0.00491  -0.00491  -0.00491   0.01141
 Alpha virt. eigenvalues --    0.02566   0.02566   0.02933   0.02933   0.02933

 Mulliken charges:
               1
     1  Cr  -0.255046
     2  C    0.109490
     3  C    0.109490
     4  C    0.109490
     5  C    0.109490
     6  C    0.109490
     7  C    0.109490
     8  O   -0.066982
     9  O   -0.066982
    10  O   -0.066982
    11  O   -0.066982
    12  O   -0.066982
    13  O   -0.066982
 Sum of Mulliken charges =  -0.00000

 Dipole moment (field-independent basis, Debye):
    X=             -0.0000    Y=             -0.0000    Z=              0.0000  Tot=              0.0000
 Quadrupole moment (field-independent basis, Debye-Ang):
   XX=            -83.1125   YY=            -83.1125   ZZ=            -83.1125
   XY=             -0.0000   XZ=              0.0000   YZ=              0.0000

 Summary of Natural Population Analysis:

                                       Natural Population
                Natural  -----------------------------------------------
    Atom  No    Charge         Core      Valence    Rydberg      Total
 -----------------------------------------------------------------------
     Cr    1   -3.29680     17.96315     9.28584    0.04782    27.29680
      C    2    0.98966      1.99876     2.95716    0.05441     5.01034
      C    3    0.98966      1.99876     2.95716    0.05441     5.01034
      C    4    0.98966      1.99876     2.95716    0.05441     5.01034
      C    5    0.98966      1.99876     2.95716    0.05441     5.01034
      C    6    0.98966      1.99876     2.95716    0.05441     5.01034
      C    7    0.98966      1.99876     2.95716    0.05441     5.01034
      O    8   -0.44019      1.99974     6.40615    0.03430     8.44019
      O    9   -0.44019      1.99974     6.40615    0.03430     8.44019
      O   10   -0.44019      1.99974     6.40615    0.03430     8.44019
      O   11   -0.44019      1.99974     6.40615    0.03430     8.44019
      O   12   -0.44019      1.99974     6.40615    0.03430     8.44019
      O   13   -0.44019      1.99974     6.40615    0.03430     8.44019
 =======================================================================
   * Total *   -0.00000     41.95416    65.46572    0.58012   108.00000

 Normal termination of Gaussian 16 at Wed Oct 14 12:04:33 2020.
