 Gaussian 09, Revision D.01,
 Gaussian 09:  ES64L-G09RevD.01 24-Apr-2013

 ---------------------------------------------
 #T CAM-B3LYP 6-31G* gfprint pop(full) Density
 ---------------------------------------------

 Symbolic Z-matrix:
 Charge =  0 Multiplicity = 1

                         Standard orientation:
 ---------------------------------------------------------------------
 Center     Atomic      Atomic             Coordinates (Angstroms)
 Number     Number       Type             X           Y           Z
 ---------------------------------------------------------------------
      1          8           0        0.000000    0.000000    1.154745
      2          6           0        0.000000    1.089502    0.346428
      3          6           0        0.000000   -1.089502    0.346428
      4          6           0        0.000000    0.716333   -0.955312
      5          6           0        0.000000   -0.716333   -0.955312
      6          1           0        0.000000    2.044876    0.847423
      7          1           0        0.000000   -2.044876    0.847423
      8          1           0        0.000000    1.372873   -1.813097
      9          1           0        0.000000   -1.372873   -1.813097
 ---------------------------------------------------------------------

 SCF Done:  E(RCAM-B3LYP) =  -229.905210737     A.U. after   14 cycles

 The electronic state is 1-A1.
 Alpha  occ. eigenvalues --  -19.28358 -10.30376 -10.30373 -10.25502 -10.25460
 Alpha  occ. eigenvalues --   -1.18865  -0.87449  -0.82017  -0.66698  -0.63713
 Alpha  occ. eigenvalues --   -0.61001  -0.51683  -0.50622  -0.47191  -0.45747
 Alpha  occ. eigenvalues --   -0.43143  -0.33323  -0.28113
 Alpha virt. eigenvalues --    0.07497   0.13630   0.17025   0.19815   0.20857
 Alpha virt. eigenvalues --    0.21979   0.25249   0.26655   0.37125   0.43556
 Alpha virt. eigenvalues --    0.50229   0.57403   0.59253   0.64386   0.64833

 Mulliken charges:
               1
     1  O   -0.391308
     2  C    0.073850
     3  C    0.073850
     4  C   -0.183928
     5  C   -0.183928
     6  H    0.159490
     7  H    0.159490
     8  H    0.146242
     9  H    0.146242
 Sum of Mulliken charges =   0.00000

 Dipole moment (field-independent basis, Debye):
    X=              0.0000    Y=              0.0000    Z=             -0.6279  Tot=              0.6279
 Orbital energies and kinetic energies (alpha):
                                 1                 2
   1         (A1)--O         -19.283578         29.028682
   2         (B2)--O         -10.303763         15.880392
   3         (A1)--O         -10.303734         15.879047
   4         (A1)--O         -10.255023         15.873341
   5         (B2)--O         -10.254605         15.882899
   6         (A1)--O          -1.188647          2.476312
   7         (A1)--O          -0.874487          1.784446
   8         (B2)--O          -0.820165          1.792138

 Normal termination of Gaussian 09 at Wed Oct  5 15:02:06 2016.
