 Gaussian 09, Revision D.01,
 Gaussian 09:  ES64L-G09RevD.01 24-Apr-2013

 -------------------------------------------------
 #P B3LYP 6-31G* gfprint pop(NBO,SaveNBOs) Density
 -------------------------------------------------

 (Enter /home/Andriy.Zhugayevych/local/gaussian/g09/l101.exe)

 Symbolic Z-matrix:
 Charge = -1 Multiplicity = 1

                         Standard orientation:
 ---------------------------------------------------------------------
 Center     Atomic      Atomic             Coordinates (Angstroms)
 Number     Number       Type             X           Y           Z
 ---------------------------------------------------------------------
      1         25           0        0.000000    0.000000    0.000000
      2          8           0        0.920665    0.920665    0.920665
      3          8           0       -0.920665   -0.920665    0.920665
      4          8           0       -0.920665    0.920665   -0.920665
      5          8           0        0.920665   -0.920665   -0.920665
 ---------------------------------------------------------------------

 SCF Done:  E(RB3LYP) =  -1451.84088329     A.U. after   12 cycles

 The electronic state is 1-A1.
 Alpha  occ. eigenvalues -- -235.48685 -27.36408 -23.44061 -23.44061 -23.44061
 Alpha  occ. eigenvalues --  -18.97312 -18.97311 -18.97311 -18.97311  -3.13264
 Alpha  occ. eigenvalues --   -1.98883  -1.98883  -1.98883  -0.73581  -0.71413
 Alpha  occ. eigenvalues --   -0.71413  -0.71413  -0.24211  -0.24211  -0.24211
 Alpha  occ. eigenvalues --   -0.23453  -0.23453  -0.16333  -0.13941  -0.13941
 Alpha  occ. eigenvalues --   -0.13941  -0.08537  -0.08537  -0.08537
 Alpha virt. eigenvalues --    0.06960   0.06960   0.13682   0.13682   0.13682
 Alpha virt. eigenvalues --    0.19220   0.22487   0.22487   0.22487   0.49929
 Alpha virt. eigenvalues --    0.75135   0.75135   0.75135   1.02898   1.02898

 Mulliken charges:
               1
     1  Mn   1.220607
     2  O   -0.555152
     3  O   -0.555152
     4  O   -0.555152
     5  O   -0.555152
 Sum of Mulliken charges =  -1.00000

 Dipole moment (field-independent basis, Debye):
    X=              0.0000    Y=              0.0000    Z=              0.0000  Tot=              0.0000
 Quadrupole moment (field-independent basis, Debye-Ang):
   XX=            -43.5724   YY=            -43.5724   ZZ=            -43.5724
   XY=              0.0000   XZ=              0.0000   YZ=              0.0000

 Summary of Natural Population Analysis:

                                       Natural Population
                Natural  -----------------------------------------------
    Atom  No    Charge         Core      Valence    Rydberg      Total
 -----------------------------------------------------------------------
     Mn    1    0.79159     17.97205     6.20505    0.03131    24.20841
      O    2   -0.44790      1.99993     6.44179    0.00617     8.44790
      O    3   -0.44790      1.99993     6.44179    0.00617     8.44790
      O    4   -0.44790      1.99993     6.44179    0.00617     8.44790
      O    5   -0.44790      1.99993     6.44179    0.00617     8.44790
 =======================================================================
   * Total *   -1.00000     25.97178    31.97221    0.05601    58.00000

 Normal termination of Gaussian 09 at Wed Oct  5 15:52:23 2016.
