 Gaussian 16, Revision A.03,
 Gaussian 16:  ES64L-G16RevA.03 25-Dec-2016

 ----------------------------------------------------------------------
 #P B3LYP 6-31G* int(ultrafine) gfprint nosymm pop(NBO,SaveNBOs) Densit
 y
 ----------------------------------------------------------------------

 (Enter /opt/cms/q-ch/gaussian/A03/g16/l101.exe)

 Symbolic Z-matrix:
 Charge =  0 Multiplicity = 1

                          Input orientation:
 ---------------------------------------------------------------------
 Center     Atomic      Atomic             Coordinates (Angstroms)
 Number     Number       Type             X           Y           Z
 ---------------------------------------------------------------------
      1          7           0        0.000000    0.000000    0.000000
      2          9           0        1.397987    0.000000    0.000000
      3          9           0       -0.698993    1.210692    0.000000
      4          9           0       -0.698993   -1.210692    0.000000
      5          9           0        0.000000    0.000000    1.563479
      6          9           0        0.000000    0.000000   -1.563479
 ---------------------------------------------------------------------

 SCF Done:  E(RB3LYP) =  -553.517907450     A.U. after   14 cycles

 Alpha  occ. eigenvalues --  -24.80776 -24.80776 -24.80776 -24.70491 -24.70490
 Alpha  occ. eigenvalues --  -14.79658  -1.40421  -1.28636  -1.28636  -1.18348
 Alpha  occ. eigenvalues --   -1.14498  -0.87432  -0.68879  -0.68879  -0.64908
 Alpha  occ. eigenvalues --   -0.52090  -0.52090  -0.50659  -0.50659  -0.47536
 Alpha  occ. eigenvalues --   -0.43531  -0.41137  -0.39999  -0.39999  -0.37987
 Alpha  occ. eigenvalues --   -0.37987
 Alpha virt. eigenvalues --   -0.13033  -0.05405  -0.02169  -0.02169   0.59755
 Alpha virt. eigenvalues --    0.59755   0.67092   0.75952   0.92133   0.92133
 Alpha virt. eigenvalues --    0.98470   0.98470   1.03947   1.15141   1.16856

 Mulliken charges:
               1
     1  N    0.956038
     2  F   -0.123811
     3  F   -0.123809
     4  F   -0.123809
     5  F   -0.292304
     6  F   -0.292304
 Sum of Mulliken charges =  -0.00000

 Dipole moment (field-independent basis, Debye):
    X=              0.0000    Y=             -0.0000    Z=             -0.0000  Tot=              0.0000
 Quadrupole moment (field-independent basis, Debye-Ang):
   XX=            -27.8713   YY=            -27.8713   ZZ=            -32.6330
   XY=              0.0000   XZ=              0.0000   YZ=              0.0000

 Summary of Natural Population Analysis:

                                       Natural Population
                Natural  -----------------------------------------------
    Atom  No    Charge         Core      Valence    Rydberg      Total
 -----------------------------------------------------------------------
      N    1    0.95189      1.99996     3.97273    0.07541     6.04811
      F    2   -0.12640      1.99994     7.11818    0.00828     9.12640
      F    3   -0.12640      1.99994     7.11818    0.00828     9.12640
      F    4   -0.12640      1.99994     7.11818    0.00828     9.12640
      F    5   -0.28634      1.99998     7.27992    0.00644     9.28634
      F    6   -0.28634      1.99998     7.27992    0.00644     9.28634
 =======================================================================
   * Total *    0.00000     11.99975    39.88711    0.11314    52.00000

 Normal termination of Gaussian 16 at Wed Oct  7 11:33:40 2020.
