 Gaussian 16, Revision A.03,
 Gaussian 16:  ES64L-G16RevA.03 25-Dec-2016

 ----------------------------------------------------------------------
 #P B3LYP 6-31G* int(ultrafine) gfprint nosymm pop(NBO,SaveNBOs) Densit
 y
 ----------------------------------------------------------------------

 (Enter /opt/cms/q-ch/gaussian/A03/g16/l101.exe)

 Symbolic Z-matrix:
 Charge =  0 Multiplicity = 1

                          Input orientation:
 ---------------------------------------------------------------------
 Center     Atomic      Atomic             Coordinates (Angstroms)
 Number     Number       Type             X           Y           Z
 ---------------------------------------------------------------------
      1         15           0        0.000000    0.000000    0.000000
      2         17           0        2.070228    0.000000    0.000000
      3         17           0       -1.035114    1.792870    0.000000
      4         17           0       -1.035114   -1.792870    0.000000
      5         17           0        0.000000    0.000000    2.176807
      6         17           0        0.000000    0.000000   -2.176807
 ---------------------------------------------------------------------

 SCF Done:  E(RB3LYP) =  -2642.35683845     A.U. after   12 cycles

 Alpha  occ. eigenvalues -- -101.59793-101.59793-101.59793-101.55568-101.55568
 Alpha  occ. eigenvalues --  -77.33326  -9.51710  -9.51710  -9.51709  -9.47472
 Alpha  occ. eigenvalues --   -9.47470  -7.28099  -7.28099  -7.28096  -7.27167
 Alpha  occ. eigenvalues --   -7.27165  -7.27165  -7.26983  -7.26983  -7.26983
 Alpha  occ. eigenvalues --   -7.23822  -7.23820  -7.22863  -7.22863  -7.22863
 Alpha  occ. eigenvalues --   -7.22863  -6.78092  -4.94433  -4.94433  -4.94250
 Alpha  occ. eigenvalues --   -0.95801  -0.88328  -0.88328  -0.84512  -0.82165
 Alpha  occ. eigenvalues --   -0.65574  -0.51047  -0.51047  -0.49487  -0.40640
 Alpha  occ. eigenvalues --   -0.40640  -0.39392  -0.39392  -0.36954  -0.36585
 Alpha  occ. eigenvalues --   -0.34896  -0.33337  -0.33337  -0.31432  -0.31432
 Alpha virt. eigenvalues --   -0.16292  -0.06600  -0.06600  -0.02846   0.22354
 Alpha virt. eigenvalues --    0.22354   0.24843   0.29970   0.33038   0.33038
 Alpha virt. eigenvalues --    0.33567   0.36275   0.36276   0.40055   0.41735

 Mulliken charges:
               1
     1  P    0.382925
     2  Cl  -0.007410
     3  Cl  -0.007416
     4  Cl  -0.007416
     5  Cl  -0.180342
     6  Cl  -0.180342
 Sum of Mulliken charges =  -0.00000

 Dipole moment (field-independent basis, Debye):
    X=              0.0000    Y=             -0.0000    Z=             -0.0000  Tot=              0.0000
 Quadrupole moment (field-independent basis, Debye-Ang):
   XX=            -73.7851   YY=            -73.7852   ZZ=            -81.9329
   XY=              0.0000   XZ=             -0.0000   YZ=              0.0000

 Summary of Natural Population Analysis:

                                       Natural Population
                Natural  -----------------------------------------------
    Atom  No    Charge         Core      Valence    Rydberg      Total
 -----------------------------------------------------------------------
      P    1    1.03387      9.99960     3.79020    0.17633    13.96613
     Cl    2   -0.15976      9.99959     7.14575    0.01442    17.15976
     Cl    3   -0.15976      9.99959     7.14575    0.01442    17.15976
     Cl    4   -0.15976      9.99959     7.14575    0.01442    17.15976
     Cl    5   -0.27729      9.99975     7.26579    0.01176    17.27729
     Cl    6   -0.27729      9.99975     7.26579    0.01176    17.27729
 =======================================================================
   * Total *   -0.00000     59.99788    39.75902    0.24309   100.00000

 Normal termination of Gaussian 16 at Wed Oct  7 10:38:08 2020.
