 Gaussian 09, Revision D.01,
 Gaussian 09:  ES64L-G09RevD.01 24-Apr-2013

 ---------------------------------------------
 #T CAM-B3LYP 6-31G* gfprint pop(full) Density
 ---------------------------------------------

 Symbolic Z-matrix:
 Charge =  0 Multiplicity = 1

                         Standard orientation:
 ---------------------------------------------------------------------
 Center     Atomic      Atomic             Coordinates (Angstroms)
 Number     Number       Type             X           Y           Z
 ---------------------------------------------------------------------
      1          7           0        0.000000    0.000000    1.118353
      2          6           0        0.000000    1.120226    0.329679
      3          6           0        0.000000   -1.120226    0.329679
      4          6           0        0.000000    0.710949   -0.979191
      5          6           0        0.000000   -0.710949   -0.979191
      6          1           0        0.000000    0.000000    2.125150
      7          1           0        0.000000    2.108650    0.764533
      8          1           0        0.000000   -2.108650    0.764533
      9          1           0        0.000000    1.358901   -1.844271
     10          1           0        0.000000   -1.358901   -1.844271
 ---------------------------------------------------------------------

 SCF Done:  E(RCAM-B3LYP) =  -210.048250277     A.U. after   14 cycles

 The electronic state is 1-A1.
 Alpha  occ. eigenvalues --  -14.44493 -10.26840 -10.26838 -10.23087 -10.23041
 Alpha  occ. eigenvalues --   -1.04868  -0.84161  -0.78956  -0.65338  -0.62728
 Alpha  occ. eigenvalues --   -0.60771  -0.48638  -0.47879  -0.46694  -0.44363
 Alpha  occ. eigenvalues --   -0.42729  -0.29008  -0.25730
 Alpha virt. eigenvalues --    0.10540   0.13053   0.15405   0.19476   0.21822
 Alpha virt. eigenvalues --    0.22657   0.23731   0.30097   0.30414   0.39737
 Alpha virt. eigenvalues --    0.42798   0.52287   0.60395   0.61785   0.64988

 Mulliken charges:
               1
     1  N   -0.550614
     2  C    0.020371
     3  C    0.020371
     4  C   -0.181200
     5  C   -0.181200
     6  H    0.333166
     7  H    0.143440
     8  H    0.143440
     9  H    0.126112
    10  H    0.126112
 Sum of Mulliken charges =   0.00000

 Dipole moment (field-independent basis, Debye):
    X=              0.0000    Y=              0.0000    Z=              1.9360  Tot=              1.9360
 Orbital energies and kinetic energies (alpha):
                                 1                 2
   1         (A1)--O         -14.444935         21.956567
   2         (B2)--O         -10.268401         15.879013
   3         (A1)--O         -10.268375         15.878074
   4         (A1)--O         -10.230867         15.873690
   5         (B2)--O         -10.230412         15.883549
   6         (A1)--O          -1.048678          1.825505
   7         (A1)--O          -0.841614          1.656591
   8         (B2)--O          -0.789558          1.660063

 Normal termination of Gaussian 09 at Wed Oct  5 14:59:03 2016.
