 Gaussian 09, Revision D.01,
 Gaussian 09:  ES64L-G09RevD.01 24-Apr-2013

 -------------------------------------------------
 #P B3LYP 6-31G* gfprint pop(NBO,SaveNBOs) Density
 -------------------------------------------------

 (Enter /home/Andriy.Zhugayevych/local/gaussian/g09/l101.exe)

 Symbolic Z-matrix:
 Charge =  0 Multiplicity = 1

                         Standard orientation:
 ---------------------------------------------------------------------
 Center     Atomic      Atomic             Coordinates (Angstroms)
 Number     Number       Type             X           Y           Z
 ---------------------------------------------------------------------
      1         16           0        0.000000    0.000000    0.000000
      2          9           0        0.000000    0.000000    1.600359
      3          9           0        0.000000    1.600359    0.000000
      4          9           0        0.000000    0.000000   -1.600359
      5          9           0        0.000000   -1.600359    0.000000
      6          9           0        1.600359    0.000000    0.000000
      7          9           0       -1.600359    0.000000    0.000000
 ---------------------------------------------------------------------

 SCF Done:  E(RB3LYP) =  -997.106743630     A.U. after   11 cycles

 The electronic state is 1-A1G.
 Alpha  occ. eigenvalues --  -89.34517 -24.76767 -24.76766 -24.76766 -24.76766
 Alpha  occ. eigenvalues --  -24.76766 -24.76766  -8.33810  -6.30504  -6.30504
 Alpha  occ. eigenvalues --   -6.30504  -1.38989  -1.27460  -1.27460  -1.27460
 Alpha  occ. eigenvalues --   -1.22851  -1.22851  -0.82145  -0.66192  -0.66192
 Alpha  occ. eigenvalues --   -0.66192  -0.54788  -0.54788  -0.54788  -0.52113
 Alpha  occ. eigenvalues --   -0.52113  -0.46870  -0.46870  -0.46870  -0.46452
 Alpha  occ. eigenvalues --   -0.46452  -0.46452  -0.42742  -0.42742  -0.42742
 Alpha virt. eigenvalues --   -0.08897   0.09392   0.09392   0.09392   0.27839
 Alpha virt. eigenvalues --    0.32624   0.32624   0.32624   0.48225   0.48225
 Alpha virt. eigenvalues --    0.48225   0.87338   0.87338   1.05591   1.05591

 Mulliken charges:
               1
     1  S    1.635054
     2  F   -0.272509
     3  F   -0.272509
     4  F   -0.272509
     5  F   -0.272509
     6  F   -0.272509
     7  F   -0.272509
 Sum of Mulliken charges =   0.00000

 Dipole moment (field-independent basis, Debye):
    X=              0.0000    Y=              0.0000    Z=              0.0000  Tot=              0.0000
 Quadrupole moment (field-independent basis, Debye-Ang):
   XX=            -41.9350   YY=            -41.9350   ZZ=            -41.9350
   XY=              0.0000   XZ=              0.0000   YZ=              0.0000

 Summary of Natural Population Analysis:

                                       Natural Population
                Natural  -----------------------------------------------
    Atom  No    Charge         Core      Valence    Rydberg      Total
 -----------------------------------------------------------------------
      S    1    2.80278      9.99992     2.99245    0.20485    13.19722
      F    2   -0.46713      1.99997     7.45803    0.00913     9.46713
      F    3   -0.46713      1.99997     7.45803    0.00913     9.46713
      F    4   -0.46713      1.99997     7.45803    0.00913     9.46713
      F    5   -0.46713      1.99997     7.45803    0.00913     9.46713
      F    6   -0.46713      1.99997     7.45803    0.00913     9.46713
      F    7   -0.46713      1.99997     7.45803    0.00913     9.46713
 =======================================================================
   * Total *    0.00000     21.99973    47.74065    0.25961    70.00000

 Normal termination of Gaussian 09 at Tue Oct  4 14:11:06 2016.
