 Gaussian 09, Revision D.01,
 Gaussian 09:  ES64L-G09RevD.01 24-Apr-2013

 -----------------------------------------
 #T B3LYP 6-31G* gfprint pop(full) Density
 -----------------------------------------

 Symbolic Z-matrix:
 Charge =  0 Multiplicity = 1

                         Standard orientation:
 ---------------------------------------------------------------------
 Center     Atomic      Atomic             Coordinates (Angstroms)
 Number     Number       Type             X           Y           Z
 ---------------------------------------------------------------------
      1         16           0        0.000000    0.000000    0.000000
      2          9           0        0.000000    0.000000    1.600359
      3          9           0        0.000000    1.600359    0.000000
      4          9           0        0.000000    0.000000   -1.600359
      5          9           0        0.000000   -1.600359    0.000000
      6          9           0        1.600359    0.000000    0.000000
      7          9           0       -1.600359    0.000000    0.000000
 ---------------------------------------------------------------------

 SCF Done:  E(RB3LYP) =  -997.106743630     A.U. after   11 cycles

 The electronic state is 1-A1G.
 Alpha  occ. eigenvalues --  -89.34517 -24.76767 -24.76766 -24.76766 -24.76766
 Alpha  occ. eigenvalues --  -24.76766 -24.76766  -8.33810  -6.30504  -6.30504
 Alpha  occ. eigenvalues --   -6.30504  -1.38989  -1.27460  -1.27460  -1.27460
 Alpha  occ. eigenvalues --   -1.22851  -1.22851  -0.82145  -0.66192  -0.66192
 Alpha  occ. eigenvalues --   -0.66192  -0.54788  -0.54788  -0.54788  -0.52113
 Alpha  occ. eigenvalues --   -0.52113  -0.46870  -0.46870  -0.46870  -0.46452
 Alpha  occ. eigenvalues --   -0.46452  -0.46452  -0.42742  -0.42742  -0.42742
 Alpha virt. eigenvalues --   -0.08897   0.09392   0.09392   0.09392   0.27839
 Alpha virt. eigenvalues --    0.32624   0.32624   0.32624   0.48225   0.48225
 Alpha virt. eigenvalues --    0.48225   0.87338   0.87338   1.05591   1.05591

 Mulliken charges:
               1
     1  S    1.635054
     2  F   -0.272509
     3  F   -0.272509
     4  F   -0.272509
     5  F   -0.272509
     6  F   -0.272509
     7  F   -0.272509
 Sum of Mulliken charges =   0.00000

 Dipole moment (field-independent basis, Debye):
    X=              0.0000    Y=              0.0000    Z=              0.0000  Tot=              0.0000
 Orbital energies and kinetic energies (alpha):
                                 1                 2
   1         (A1G)--O        -89.345166        120.984228
   2         (A1G)--O        -24.767666         37.075582
   3         (EG)--O         -24.767662         37.083727
   4         (EG)--O         -24.767662         37.083727
   5         (T1U)--O        -24.767662         37.077674
   6         (T1U)--O        -24.767662         37.077674
   7         (T1U)--O        -24.767662         37.077674
   8         (A1G)--O         -8.338096         18.555212

 Normal termination of Gaussian 09 at Tue Oct  4 14:11:04 2016.
