 Gaussian 09, Revision D.01,
 Gaussian 09:  ES64L-G09RevD.01 24-Apr-2013

 ---------------------------------------------
 #T gfprint pop(full) CAM-B3LYP 6-31g* Density
 ---------------------------------------------

 Symbolic Z-matrix:
 Charge =  0 Multiplicity = 1

                         Standard orientation:
 ---------------------------------------------------------------------
 Center     Atomic      Atomic             Coordinates (Angstroms)
 Number     Number       Type             X           Y           Z
 ---------------------------------------------------------------------
      1         16           0        0.000000    0.000000    1.192657
      2          6           0        0.000000    1.236399   -0.009960
      3          6           0        0.000000   -1.236399   -0.009960
      4          6           0        0.000000    0.713765   -1.266084
      5          6           0        0.000000   -0.713765   -1.266084
      6          1           0        0.000000    2.277720    0.279836
      7          1           0        0.000000   -2.277720    0.279836
      8          1           0        0.000000    1.319056   -2.164820
      9          1           0        0.000000   -1.319056   -2.164820
 ---------------------------------------------------------------------

 SCF Done:  E(RCAM-B3LYP) =  -552.900355297     A.U. after   14 cycles

 The electronic state is 1-A1.
 Alpha  occ. eigenvalues --  -88.97549 -10.28345 -10.28344 -10.26230 -10.26186
 Alpha  occ. eigenvalues --   -8.03811  -6.00310  -5.99917  -5.99600  -0.96037
 Alpha  occ. eigenvalues --   -0.80970  -0.80066  -0.63323  -0.62117  -0.58313
 Alpha  occ. eigenvalues --   -0.47620  -0.45251  -0.44520  -0.44450  -0.40059
 Alpha  occ. eigenvalues --   -0.30201  -0.28935
 Alpha virt. eigenvalues --    0.04348   0.09075   0.12807   0.15301   0.16363
 Alpha virt. eigenvalues --    0.20598   0.22987   0.23032   0.30309   0.35334
 Alpha virt. eigenvalues --    0.36123   0.42504   0.45379   0.48300   0.51297

 Mulliken charges:
               1
     1  S    0.247794
     2  C   -0.345334
     3  C   -0.345334
     4  C   -0.103003
     5  C   -0.103003
     6  H    0.178354
     7  H    0.178354
     8  H    0.146086
     9  H    0.146086
 Sum of Mulliken charges =   0.00000

 Dipole moment (field-independent basis, Debye):
    X=              0.0000    Y=              0.0000    Z=             -0.6515  Tot=              0.6515
 Orbital energies and kinetic energies (alpha):
                                 1                 2
   1         (A1)--O         -88.975489        120.987372
   2         (B2)--O         -10.283446         15.878937
   3         (A1)--O         -10.283437         15.880733
   4         (A1)--O         -10.262295         15.874090
   5         (B2)--O         -10.261863         15.883734
   6         (A1)--O          -8.038112         18.487946
   7         (B2)--O          -6.003102         17.497586
   8         (A1)--O          -5.999168         17.500430

 Normal termination of Gaussian 09 at Mon Apr 11 15:45:25 2016.
